 # Fcc Cu oriented X=[001] Y=[-110] Z=[110].
 
          54  atoms
           1  atom types
 
      0.000000000000      10.791000000000  xlo xhi
      0.000000000000       7.630389275784  ylo yhi
      0.000000000000       7.630389275784  zlo zhi
 
Masses
 
            1   63.54600000             # Cu
 
Atoms # atomic
 
         1    1        0.000000000000       0.000000000000       0.000000000000
         2    1        1.798500000000       1.271731545964       1.271731545964
         3    1        3.597000000000       0.000000000000       0.000000000000
         4    1        5.395500000000       1.271731545964       1.271731545964
         5    1        7.194000000000       0.000000000000       0.000000000000
         6    1        8.992500000000       1.271731545964       1.271731545964
         7    1        0.000000000000       2.543463091928       0.000000000000
         8    1        1.798500000000       3.815194637892       1.271731545964
         9    1        3.597000000000       2.543463091928       0.000000000000
        10    1        5.395500000000       3.815194637892       1.271731545964
        11    1        7.194000000000       2.543463091928       0.000000000000
        12    1        8.992500000000       3.815194637892       1.271731545964
        13    1        0.000000000000       5.086926183856       0.000000000000
        14    1        1.798500000000       6.358657729820       1.271731545964
        15    1        3.597000000000       5.086926183856       0.000000000000
        16    1        5.395500000000       6.358657729820       1.271731545964
        17    1        7.194000000000       5.086926183856       0.000000000000
        18    1        8.992500000000       6.358657729820       1.271731545964
        19    1        0.000000000000       0.000000000000       2.543463091928
        20    1        1.798500000000       1.271731545964       3.815194637892
        21    1        3.597000000000       0.000000000000       2.543463091928
        22    1        5.395500000000       1.271731545964       3.815194637892
        23    1        7.194000000000       0.000000000000       2.543463091928
        24    1        8.992500000000       1.271731545964       3.815194637892
        25    1        0.000000000000       2.543463091928       2.543463091928
        26    1        1.798500000000       3.815194637892       3.815194637892
        27    1        3.597000000000       2.543463091928       2.543463091928
        28    1        5.395500000000       3.815194637892       3.815194637892
        29    1        7.194000000000       2.543463091928       2.543463091928
        30    1        8.992500000000       3.815194637892       3.815194637892
        31    1        0.000000000000       5.086926183856       2.543463091928
        32    1        1.798500000000       6.358657729820       3.815194637892
        33    1        3.597000000000       5.086926183856       2.543463091928
        34    1        5.395500000000       6.358657729820       3.815194637892
        35    1        7.194000000000       5.086926183856       2.543463091928
        36    1        8.992500000000       6.358657729820       3.815194637892
        37    1        0.000000000000       0.000000000000       5.086926183856
        38    1        1.798500000000       1.271731545964       6.358657729820
        39    1        3.597000000000       0.000000000000       5.086926183856
        40    1        5.395500000000       1.271731545964       6.358657729820
        41    1        7.194000000000       0.000000000000       5.086926183856
        42    1        8.992500000000       1.271731545964       6.358657729820
        43    1        0.000000000000       2.543463091928       5.086926183856
        44    1        1.798500000000       3.815194637892       6.358657729820
        45    1        3.597000000000       2.543463091928       5.086926183856
        46    1        5.395500000000       3.815194637892       6.358657729820
        47    1        7.194000000000       2.543463091928       5.086926183856
        48    1        8.992500000000       3.815194637892       6.358657729820
        49    1        0.000000000000       5.086926183856       5.086926183856
        50    1        1.798500000000       6.358657729820       6.358657729820
        51    1        3.597000000000       5.086926183856       5.086926183856
        52    1        5.395500000000       6.358657729820       6.358657729820
        53    1        7.194000000000       5.086926183856       5.086926183856
        54    1        8.992500000000       6.358657729820       6.358657729820
